# vtk DataFile Version 2.0
PFLOTRAN output
ASCII
DATASET UNSTRUCTURED_GRID
POINTS 8613 double
-0.5 -0.37573595328 0.0
-0.5 -0.36323595328 0.0
-0.5 -0.3405913368544 0.0
-0.5 -0.3266914054592 0.0
-0.5 -0.3112798171644 0.0
-0.5 -0.298476228822 0.0
-0.5 -0.2852052773001 0.0
-0.5 -0.2721404605891 0.0
-0.5 -0.2576351899758 0.0
-0.5 -0.2444085338911 0.0
-0.5 -0.229984029497 0.0
-0.5 -0.2171809630551 0.0
-0.5 -0.2023791063463 0.0
-0.5 -0.1889058599905 0.0
-0.5 -0.1749763291319 0.0
-0.5 -0.159848798235 0.0
-0.5 -0.1457489576176 0.0
-0.5 -0.1328220126663 0.0
-0.5 -0.1173452943163 0.0
-0.5 -0.1033259254307 0.0
-0.5 -0.0893855649393 0.0
-0.5 -0.07322474752554 0.0
-0.5 -0.05699912072542 0.0
-0.5 -0.04299881063058 0.0
-0.5 -0.02928552546921 0.0
-0.5 -0.01525336910063 0.0
-0.5 -0.00273872034877 0.0
-0.5 0.01158555827525 0.0
-0.5 0.02584966848322 0.0
-0.5 0.03839148931128 0.0
-0.5 0.0510403355946 0.0
-0.5 0.06404635255147 0.0
-0.5 0.07845532913086 0.0
-0.5 0.09176916244339 0.0
-0.5 0.1079961241066 0.0
-0.5 0.1226690371028 0.0
-0.5 0.1354321930822 0.0
-0.5 0.1495956486281 0.0
-0.5 0.1650082604835 0.0
-0.5 0.1807827263609 0.0
-0.5 0.1940026838891 0.0
-0.5 0.2073105981119 0.0
-0.5 0.2231923222136 0.0
-0.5 0.2365119106655 0.0
-0.5 0.2493922570558 0.0
-0.5 0.2635057145641 0.0
-0.5 0.2778519629788 0.0
-0.5 0.290535889593 0.0
-0.5 0.3039906639831 0.0
-0.5 0.3187198969312 0.0
-0.5 0.3344764071571 0.0
-0.5 0.3470224256136 0.0
-0.5 0.363235925398 0.0
-0.5 0.375735925398 0.0
-0.488451506047 0.3805194687936 0.0
-0.4884515055107 -0.3805194953808 0.0
-0.48790451268 -0.2916138648086 0.0
-0.4874908498569 -0.09705313088143 0.0
-0.4872091538426 -0.1732099623728 0.0
-0.4869227759476 -0.3348248564421 0.0
-0.4867269645773 0.09688391999448 0.0
-0.486421858023 0.08089298636287 0.0
-0.4861519635413 0.172199420498 0.0
-0.486113591091 0.235647255687 0.0
-0.4859591610095 -0.1242496974132 0.0
-0.4855376633694 -0.01403493677241 0.0
-0.4854840753507 -0.2784065989821 0.0
-0.4852605715007 0.269273195514 0.0
-0.4851535209568 -0.2641612294092 0.0
-0.48500634409 0.2024426763796 0.0
-0.4849229699312 0.003870840724356 0.0
-0.4849141108307 -0.04247556476428 0.0
-0.4844707266581 -0.2032434465361 0.0
-0.4844590213652 0.3231045469013 0.0
-0.4842393230579 -0.110841560463 0.0
-0.4842258666385 -0.3514763180923 0.0
-0.4840805638572 -0.08319853591526 0.0
-0.4840644879396 0.1227194165766 0.0
-0.4839680320549 -0.2490800383896 0.0
-0.4839190880276 -0.1556518439009 0.0
-0.4838604203374 0.1562450025559 0.0
-0.483860061081 0.3029580547844 0.0
-0.4838167078926 0.353227615026 0.0
-0.4832666326167 -0.3047218041701 0.0
-0.4832511965292 0.01987374319106 0.0
-0.4830227135905 0.03738783523157 0.0
-0.4828704304975 -0.2206142745254 0.0
-0.4824912049687 -0.06758628036348 0.0
-0.482464568442 -0.2343541474779 0.0
-0.4823371132136 0.2524961192429 0.0
-0.4822950822026 0.3386312705294 0.0
-0.4821502538596 0.3682327878841 0.0
-0.4812972938149 -0.02849732934515 0.0
-0.481171716336 0.218655133456 0.0
-0.4809476998734 0.1874563000335 0.0
-0.4804641224984 -0.1371777748568 0.0
-0.4803037391833 -0.3659516446506 0.0
-0.480032431229 0.2853839369565 0.0
-0.4795784423527 -0.1875982546789 0.0
-0.4794627147105 -0.3197856289011 0.0
-0.4791206747831 0.1381817409169 0.0
-0.478745299305 0.05550467883836 0.0
-0.4772355701165 0.1091581917019 0.0
-0.476643137982 0.3854106555838 0.0
-0.4762910358133 0.07193959254272 0.0
-0.4762534626164 -0.05400984153252 0.0
-0.4748258949221 -0.3861634069712 0.0
-0.4735325259478 -0.2896409381269 0.0
-0.473527231365 -0.3382862332879 0.0
-0.4723647160321 -0.1000609749942 0.0
-0.4722695001736 0.3137635347723 0.0
-0.4722450930064 0.09149382672949 0.0
-0.4721912835897 -0.004520618308418 0.0
-0.4721892951191 -0.1721997047072 0.0
-0.47075762862 -0.2734330734854 0.0
-0.4705189425514 0.2355739922503 0.0
-0.4703096307378 -0.2577449864829 0.0
-0.4695364382238 -0.2121413610584 0.0
-0.4695094715238 0.1703956102241 0.0
-0.4688994732045 -0.1470159088662 0.0
-0.4686089555341 -0.01870894904531 0.0
-0.4685328363042 0.1517109274888 0.0
-0.4684825077849 -0.08053508445026 0.0
-0.4684395138543 0.3601703171426 0.0
-0.4681023062715 0.2670978630711 0.0
-0.4680132113344 -0.1197387308564 0.0
-0.4675464837879 0.01004808559275 0.0
-0.4675458375451 0.2043868348902 0.0
-0.4674538814599 -0.2412332926641 0.0
-0.4669856088882 0.04071715399359 0.0
-0.4664086041426 0.02541388066842 0.0
-0.4663664336457 -0.198415655312 0.0
-0.466350171389 -0.1598306669328 0.0
-0.4659974677051 -0.03721497208009 0.0
-0.4658629364126 -0.3025882728168 0.0
-0.4658417604802 0.3307845053201 0.0
-0.4653816915662 0.3467263663013 0.0
-0.4652928442006 -0.3726897035375 0.0
-0.4650702219147 0.2498942528973 0.0
-0.4648555556788 0.3902932326285 0.0
-0.4648104717446 0.1227876735784 0.0
-0.4645951705067 0.2977518249902 0.0
-0.464121463262 0.3735450310354 0.0
-0.4640838504038 0.1874274689898 0.0
-0.4634211468351 -0.3522834215777 0.0
-0.4624113147904 -0.2261463666103 0.0
-0.4623595907265 -0.06777089900301 0.0
-0.4619920476312 0.2825857748741 0.0
-0.4619320869283 -0.3915041960615 0.0
-0.4614391549612 0.2226072166406 0.0
-0.4614033785791 -0.3175138428437 0.0
-0.4607908414517 0.06666995521652 0.0
-0.4606487520351 -0.09320257240834 0.0
-0.4605062265303 -0.332710446014 0.0
-0.4602934075082 -0.18372127621 0.0
-0.4593368645172 -0.1351461113656 0.0
-0.4591387496788 0.1050645136799 0.0
-0.4590487063151 0.3149547270752 0.0
-0.459038794596 0.08496049413335 0.0
-0.4580892335736 -0.2839818840253 0.0
-0.4576050051118 -0.05091165612142 0.0
-0.4563616827253 -0.2516030832106 0.0
-0.4561176915661 0.1371343938398 0.0
-0.4557861790344 0.05011823203578 0.0
-0.4554262212091 -0.2669856746802 0.0
-0.4553090718424 -0.003778504841388 0.0
-0.4550990012835 0.1592153101322 0.0
-0.4550893608289 -0.02204588941233 0.0
-0.4549906983692 -0.1065954221871 0.0
-0.4536831680109 -0.1695055201864 0.0
-0.452817684334 0.3952794828012 0.0
-0.4525833046039 -0.1517163755205 0.0
-0.4521923473393 -0.2110956363296 0.0
-0.4516016182157 0.1772195819258 0.0
-0.4515703785835 -0.3660054106615 0.0
-0.450940076645 0.2561530095073 0.0
-0.4506110123532 0.238868192528 0.0
-0.4503818591344 -0.3962884561205 0.0
-0.4503601141958 0.03339627765876 0.0
-0.450339504777 -0.307826501667 0.0
-0.4501518207071 0.2111611008141 0.0
-0.4497109690424 0.2729060199191 0.0
-0.4496657592946 -0.1960317685359 0.0
-0.4496480376525 0.01465881229972 0.0
-0.4496213264203 -0.1230892610711 0.0
-0.4493885482165 0.3603774633836 0.0
-0.4491580738802 -0.380390382578 0.0
-0.4490461776464 0.3420459206579 0.0
-0.4488369439597 0.3785755036033 0.0
-0.4483805030195 -0.237976582471 0.0
-0.4479996404131 0.3258528862543 0.0
-0.4478139676967 0.1960468288802 0.0
-0.4475736971842 -0.2932457659549 0.0
-0.4470635046193 0.306864327928 0.0
-0.4467476615161 -0.08561566596884 0.0
-0.4463666269429 -0.3223546904524 0.0
-0.4460557399585 -0.03445662281577 0.0
-0.4458469228753 -0.06590568057225 0.0
-0.4456584542741 0.2905013205374 0.0
-0.4451086735837 0.06046873579583 0.0
-0.4448052542047 0.1186746118497 0.0
-0.4445012926691 -0.3398768504336 0.0
-0.4443618675214 0.07812202715559 0.0
-0.4442751920316 -0.3549572980334 0.0
-0.4439141936061 0.09740433043118 0.0
-0.4427262086844 0.1502387389236 0.0
-0.4414923240222 0.2244685380428 0.0
-0.441420569241 -0.04959480965451 0.0
-0.4411658596461 -0.2233172972286 0.0
-0.4410401163097 -0.2549760375223 0.0
-0.4408945679793 -0.2740727372625 0.0
-0.4404897902417 -0.01559985240337 0.0
-0.4402683585498 0.4004775843648 0.0
-0.4401773352582 -0.1826018879006 0.0
-0.4398239618448 -0.1066733416656 0.0
-0.4394593107752 -0.1416092387881 0.0
-0.4391016985765 -0.1619536572814 0.0
-0.439011741406 -0.0003816435729447 0.0
-0.4382559445894 0.1663033240055 0.0
-0.4362764522874 0.2633221574142 0.0
-0.4359058396875 0.1359906681275 0.0
-0.4357154730782 -0.4023634709401 0.0
-0.4356455720017 0.02565906232575 0.0
-0.4347876468973 -0.1248597763567 0.0
-0.4345695925548 0.3882321114152 0.0
-0.4345109388856 -0.3875239457374 0.0
-0.4343703522502 0.1814389347341 0.0
-0.4343492966833 0.3182431080078 0.0
-0.434345621151 -0.2048310096692 0.0
-0.4342325381045 -0.3693878356418 0.0
-0.4338289864645 0.04343016414187 0.0
-0.4337439536535 -0.3069520171773 0.0
-0.4337142816179 0.3516385759192 0.0
-0.4331546914028 -0.3246872297712 0.0
-0.4329238482805 -0.289376172809 0.0
-0.4329107967212 0.249837464194 0.0
-0.4322083646745 0.3336283939243 0.0
-0.4321722715945 -0.0756852450848 0.0
-0.4319824669255 0.3711911550429 0.0
-0.4319142865027 0.2764198859375 0.0
-0.4317944188209 0.2366653687407 0.0
-0.4317308191824 0.0651558380062 0.0
-0.431054939652 0.2101446194368 0.0
-0.4303045790651 0.304265698414 0.0
-0.4294192165904 -0.2395748733972 0.0
-0.4293787576938 0.01045406120363 0.0
-0.4291892281994 -0.3517316747211 0.0
-0.4291111505129 -0.02509788411134 0.0
-0.4289988870856 0.1946946313546 0.0
-0.4289221112679 0.1063061969289 0.0
-0.4286238316088 -0.05772279194238 0.0
-0.4285733563054 0.08631562410931 0.0
-0.4282465987404 -0.09520666893494 0.0
-0.4275771262572 0.2899645586336 0.0
-0.4271052439203 -0.03990646020334 0.0
-0.426653216465 0.1532425048432 0.0
-0.4262210327406 -0.2603669567212 0.0
-0.4254913943763 -0.1712204527885 0.0
-0.4254535332836 0.4066140866521 0.0
-0.4252097344689 -0.189894143968 0.0
-0.4251800040613 0.1239905870347 0.0
-0.424707127668 -0.3364634605952 0.0
-0.4243784281975 -0.153966798187 0.0
-0.4239690586849 -0.1150598526405 0.0
-0.4233288394688 -0.2216613523985 0.0
-0.4228583169904 -0.4076890783169 0.0
-0.4227132154159 -0.2765256122733 0.0
-0.4217733283415 0.22608973931 0.0
-0.4216193965255 -0.009041785540082 0.0
-0.4212939764763 -0.3798977493269 0.0
-0.4209684466602 -0.1355075186737 0.0
-0.4204267475592 0.1696682361345 0.0
-0.4190772458051 -0.3169468647561 0.0
-0.4187448050776 -0.2963577491228 0.0
-0.4187402521006 0.07057208770848 0.0
-0.418543239394 0.3578998343045 0.0
-0.4181783849895 0.3396730589279 0.0
-0.4181569358201 0.05385171291129 0.0
-0.4180394973106 0.3907311265821 0.0
-0.417973019056 0.2626184145333 0.0
-0.4178682974267 -0.08079063512255 0.0
[...]
POINT_DATA     8613
SCALARS Liquid_Pressure      float 1
LOOKUP_TABLE default
 1.013250E+06  1.013250E+06  1.013250E+06  1.013250E+06  1.013250E+06  1.013250E+06  1.013250E+06  1.013250E+06  1.013250E+06  1.013250E+06
 1.013250E+06  1.013250E+06  1.013250E+06  1.013250E+06  1.013250E+06  1.013250E+06  1.013250E+06  1.013250E+06  1.013250E+06  1.013250E+06
 1.013250E+06  1.013250E+06  1.013250E+06  1.013250E+06  1.013250E+06  1.013250E+06  1.013250E+06  1.013250E+06  1.013250E+06  1.013250E+06
 1.013250E+06  1.013250E+06  1.013250E+06  1.013250E+06  1.013250E+06  1.013250E+06  1.013250E+06  1.013250E+06  1.013250E+06  1.013250E+06
 1.013250E+06  1.013250E+06  1.013250E+06  1.013250E+06  1.013250E+06  1.013250E+06  1.013250E+06  1.013250E+06  1.013250E+06  1.013250E+06
 1.013250E+06  1.013250E+06  1.013250E+06  1.013250E+06  1.013250E+06  1.013250E+06  1.013250E+06  1.013250E+06  1.013250E+06  1.013250E+06
 1.013250E+06  1.013250E+06  1.013250E+06  1.013250E+06  1.013250E+06  1.013250E+06  1.013250E+06  1.013250E+06  1.013250E+06  1.013250E+06
 1.013250E+06  1.013250E+06  1.013250E+06  1.013250E+06  1.013250E+06  1.013250E+06  1.013250E+06  1.013250E+06  1.013250E+06  1.013250E+06
 1.013250E+06  1.013250E+06  1.013250E+06  1.013250E+06  1.013250E+06  1.013250E+06  1.013250E+06  1.013250E+06  1.013250E+06  1.013250E+06
 1.013250E+06  1.013250E+06  1.013250E+06  1.013250E+06  1.013250E+06  1.013250E+06  1.013250E+06  1.013250E+06  1.013250E+06  1.013250E+06
 1.013250E+06  1.013250E+06  1.013250E+06  1.013250E+06  1.013250E+06  1.013250E+06  1.013250E+06  1.013250E+06  1.013250E+06  1.013250E+06
 1.013250E+06  1.013250E+06  1.013250E+06  1.013250E+06  1.013250E+06  1.013250E+06  1.013250E+06  1.013250E+06  1.013250E+06  1.013250E+06
 1.013250E+06  1.013250E+06  1.013250E+06  1.013250E+06  1.013250E+06  1.013250E+06  1.013250E+06  1.013250E+06  1.013250E+06  1.013250E+06
 1.013250E+06  1.013250E+06  1.013250E+06  1.013250E+06  1.013250E+06  1.013250E+06  1.013250E+06  1.013250E+06  1.013250E+06  1.013250E+06
 1.013250E+06  1.013250E+06  1.013250E+06  1.013250E+06  1.013250E+06  1.013250E+06  1.013250E+06  1.013250E+06  1.013250E+06  1.013250E+06
 1.013250E+06  1.013250E+06  1.013250E+06  1.013250E+06  1.013250E+06  1.013250E+06  1.013250E+06  1.013250E+06  1.013250E+06  1.013250E+06
 1.013250E+06  1.013250E+06  1.013250E+06  1.013250E+06  1.013250E+06  1.013250E+06  1.013250E+06  1.013250E+06  1.013250E+06  1.013250E+06
 1.013250E+06  1.013250E+06  1.013250E+06  1.013250E+06  1.013250E+06  1.013250E+06  1.013250E+06  1.013250E+06  1.013250E+06  1.013250E+06
 1.013250E+06  1.013250E+06  1.013250E+06  1.013250E+06  1.013250E+06  1.013250E+06  1.013250E+06  1.013250E+06  1.013250E+06  1.013250E+06
 1.013250E+06  1.013250E+06  1.013250E+06  1.013250E+06  1.013250E+06  1.013250E+06  1.013250E+06  1.013250E+06  1.013250E+06  1.013250E+06
 1.013250E+06  1.013250E+06  1.013250E+06  1.013250E+06  1.013250E+06  1.013250E+06  1.013250E+06  1.013250E+06  1.013250E+06  1.013250E+06
 1.013250E+06  1.013250E+06  1.013250E+06  1.013250E+06  1.013250E+06  1.013250E+06  1.013250E+06  1.013250E+06  1.013250E+06  1.013250E+06
 1.013250E+06  1.013250E+06  1.013250E+06  1.013250E+06  1.013250E+06  1.013250E+06  1.013250E+06  1.013250E+06  1.013250E+06  1.013250E+06
 1.013250E+06  1.013250E+06  1.013250E+06  1.013250E+06  1.013250E+06  1.013250E+06  1.013250E+06  1.013250E+06  1.013250E+06  1.013250E+06
 1.013250E+06  1.013250E+06  1.013250E+06  1.013250E+06  1.013250E+06  1.013250E+06  1.013250E+06  1.013250E+06  1.013250E+06  1.013250E+06
 1.013250E+06  1.013250E+06  1.013250E+06  1.013250E+06  1.013250E+06  1.013250E+06  1.013250E+06  1.013250E+06  1.013250E+06  1.013250E+06
 1.013250E+06  1.013250E+06  1.013250E+06  1.013250E+06  1.013250E+06  1.013250E+06  1.013250E+06  1.013250E+06  1.013250E+06  1.013250E+06
 1.013250E+06  1.013250E+06  1.013250E+06  1.013250E+06  1.013250E+06  1.013250E+06  1.013250E+06  1.013250E+06  1.013250E+06  1.013250E+06
 1.013250E+06  1.013250E+06  1.013250E+06  1.013250E+06  1.013250E+06  1.013250E+06  1.013250E+06  1.013250E+06  1.013250E+06  1.013250E+06
 1.013250E+06  1.013250E+06  1.013250E+06  1.013250E+06  1.013250E+06  1.013250E+06  1.013250E+06  1.013250E+06  1.013250E+06  1.013250E+06
 1.013250E+06  1.013250E+06  1.013250E+06  1.013250E+06  1.013250E+06  1.013250E+06  1.013250E+06  1.013250E+06  1.013250E+06  1.013250E+06
 1.013250E+06  1.013250E+06  1.013250E+06  1.013250E+06  1.013250E+06  1.013250E+06  1.013250E+06  1.013250E+06  1.013250E+06  1.013250E+06
 1.013250E+06  1.013250E+06  1.013250E+06  1.013250E+06  1.013250E+06  1.013250E+06  1.013250E+06  1.013250E+06  1.013250E+06  1.013250E+06
 1.013250E+06  1.013250E+06  1.013250E+06  1.013250E+06  1.013250E+06  1.013250E+06  1.013250E+06  1.013250E+06  1.013250E+06  1.013250E+06
 1.013250E+06  1.013250E+06  1.013250E+06  1.013250E+06  1.013250E+06  1.013250E+06  1.013250E+06  1.013250E+06  1.013250E+06  1.013250E+06
 1.013250E+06  1.013250E+06  1.013250E+06  1.013250E+06  1.013250E+06  1.013250E+06  1.013250E+06  1.013250E+06  1.013250E+06  1.013250E+06
 1.013250E+06  1.013250E+06  1.013250E+06  1.013250E+06  1.013250E+06  1.013250E+06  1.013250E+06  1.013250E+06  1.013250E+06  1.013250E+06
 1.013250E+06  1.013250E+06  1.013250E+06  1.013250E+06  1.013250E+06  1.013250E+06  1.013250E+06  1.013250E+06  1.013250E+06  1.013250E+06
 1.013250E+06  1.013250E+06  1.013250E+06  1.013250E+06  1.013250E+06  1.013250E+06  1.013250E+06  1.013250E+06  1.013250E+06  1.013250E+06
 1.013250E+06  1.013250E+06  1.013250E+06  1.013250E+06  1.013250E+06  1.013250E+06  1.013250E+06  1.013250E+06  1.013250E+06  1.013250E+06
 1.013250E+06  1.013250E+06  1.013250E+06  1.013250E+06  1.013250E+06  1.013250E+06  1.013250E+06  1.013250E+06  1.013250E+06  1.013250E+06
 1.013250E+06  1.013250E+06  1.013250E+06  1.013250E+06  1.013250E+06  1.013250E+06  1.013250E+06  1.013250E+06  1.013250E+06  1.013250E+06
 1.013250E+06  1.013250E+06  1.013250E+06  1.013250E+06  1.013250E+06  1.013250E+06  1.013250E+06  1.013250E+06  1.013250E+06  1.013250E+06
 1.013250E+06  1.013250E+06  1.013250E+06  1.013250E+06  1.013250E+06  1.013250E+06  1.013250E+06  1.013250E+06  1.013250E+06  1.013250E+06
 1.013250E+06  1.013250E+06  1.013250E+06  1.013250E+06  1.013250E+06  1.013250E+06  1.013250E+06  1.013250E+06  1.013250E+06  1.013250E+06
 1.013250E+06  1.013250E+06  1.013250E+06  1.013250E+06  1.013250E+06  1.013250E+06  1.013250E+06  1.013250E+06  1.013250E+06  1.013250E+06
 1.013250E+06  1.013250E+06  1.013250E+06  1.013250E+06  1.013250E+06  1.013250E+06  1.013250E+06  1.013250E+06  1.013250E+06  1.013250E+06
 1.013250E+06  1.013250E+06  1.013250E+06  1.013250E+06  1.013250E+06  1.013250E+06  1.013250E+06  1.013250E+06  1.013250E+06  1.013250E+06
 1.013250E+06  1.013250E+06  1.013250E+06  1.013250E+06  1.013250E+06  1.013250E+06  1.013250E+06  1.013250E+06  1.013250E+06  1.013250E+06
 1.013250E+06  1.013250E+06  1.013250E+06  1.013250E+06  1.013250E+06  1.013250E+06  1.013250E+06  1.013250E+06  1.013250E+06  1.013250E+06
 1.013250E+06  1.013250E+06  1.013250E+06  1.013250E+06  1.013250E+06  1.013250E+06  1.013250E+06  1.013250E+06  1.013250E+06  1.013250E+06
 1.013250E+06  1.013250E+06  1.013250E+06  1.013250E+06  1.013250E+06  1.013250E+06  1.013250E+06  1.013250E+06  1.013250E+06  1.013250E+06
 1.013250E+06  1.013250E+06  1.013250E+06  1.013250E+06  1.013250E+06  1.013250E+06  1.013250E+06  1.013250E+06  1.013250E+06  1.013250E+06
 1.013250E+06  1.013250E+06  1.013250E+06  1.013250E+06  1.013250E+06  1.013250E+06  1.013250E+06  1.013250E+06  1.013250E+06  1.013250E+06
 1.013250E+06  1.013250E+06  1.013250E+06  1.013250E+06  1.013250E+06  1.013250E+06  1.013250E+06  1.013250E+06  1.013250E+06  1.013250E+06
 1.013250E+06  1.013250E+06  1.013250E+06  1.013250E+06  1.013250E+06  1.013250E+06  1.013250E+06  1.013250E+06  1.013250E+06  1.013250E+06
 1.013250E+06  1.013250E+06  1.013250E+06  1.013250E+06  1.013250E+06  1.013250E+06  1.013250E+06  1.013250E+06  1.013250E+06  1.013250E+06
 1.013250E+06  1.013250E+06  1.013250E+06  1.013250E+06  1.013250E+06  1.013250E+06  1.013250E+06  1.013250E+06  1.013250E+06  1.013250E+06
 1.013250E+06  1.013250E+06  1.013250E+06  1.013250E+06  1.013250E+06  1.013250E+06  1.013250E+06  1.013250E+06  1.013250E+06  1.013250E+06
 1.013250E+06  1.013250E+06  1.013250E+06  1.013250E+06  1.013250E+06  1.013250E+06  1.013250E+06  1.013250E+06  1.013250E+06  1.013250E+06
 1.013250E+06  1.013250E+06  1.013250E+06  1.013250E+06  1.013250E+06  1.013250E+06  1.013250E+06  1.013250E+06  1.013250E+06  1.013250E+06
 1.013250E+06  1.013250E+06  1.013250E+06  1.013250E+06  1.013250E+06  1.013250E+06  1.013250E+06  1.013250E+06  1.013250E+06  1.013250E+06
 1.013250E+06  1.013250E+06  1.013250E+06  1.013250E+06  1.013250E+06  1.013250E+06  1.013250E+06  1.013250E+06  1.013250E+06  1.013250E+06
 1.013250E+06  1.013250E+06  1.013250E+06  1.013250E+06  1.013250E+06  1.013250E+06  1.013250E+06  1.013250E+06  1.013250E+06  1.013250E+06
 1.013250E+06  1.013250E+06  1.013250E+06  1.013250E+06  1.013250E+06  1.013250E+06  1.013250E+06  1.013250E+06  1.013250E+06  1.013250E+06
 1.013250E+06  1.013250E+06  1.013250E+06  1.013250E+06  1.013250E+06  1.013250E+06  1.013250E+06  1.013250E+06  1.013250E+06  1.013250E+06
 1.013250E+06  1.013250E+06  1.013250E+06  1.013250E+06  1.013250E+06  1.013250E+06  1.013250E+06  1.013250E+06  1.013250E+06  1.013250E+06
 1.013250E+06  1.013250E+06  1.013250E+06  1.013250E+06  1.013250E+06  1.013250E+06  1.013250E+06  1.013250E+06  1.013250E+06  1.013250E+06
 1.013250E+06  1.013250E+06  1.013250E+06  1.013250E+06  1.013250E+06  1.013250E+06  1.013250E+06  1.013250E+06  1.013250E+06  1.013250E+06
 1.013250E+06  1.013250E+06  1.013250E+06  1.013250E+06  1.013250E+06  1.013250E+06  1.013250E+06  1.013250E+06  1.013250E+06  1.013250E+06
 1.013250E+06  1.013250E+06  1.013250E+06  1.013250E+06  1.013250E+06  1.013250E+06  1.013250E+06  1.013250E+06  1.013250E+06  1.013250E+06
 1.013250E+06  1.013250E+06  1.013250E+06  1.013250E+06  1.013250E+06  1.013250E+06  1.013250E+06  1.013250E+06  1.013250E+06  1.013250E+06
 1.013250E+06  1.013250E+06  1.013250E+06  1.013250E+06  1.013250E+06  1.013250E+06  1.013250E+06  1.013250E+06  1.013250E+06  1.013250E+06
 1.013250E+06  1.013250E+06  1.013250E+06  1.013250E+06  1.013250E+06  1.013250E+06  1.013250E+06  1.013250E+06  1.013250E+06  1.013250E+06
 1.013250E+06  1.013250E+06  1.013250E+06  1.013250E+06  1.013250E+06  1.013250E+06  1.013250E+06  1.013250E+06  1.013250E+06  1.013250E+06
 1.013250E+06  1.013250E+06  1.013250E+06  1.013250E+06  1.013250E+06  1.013250E+06  1.013250E+06  1.013250E+06  1.013250E+06  1.013250E+06
 1.013250E+06  1.013250E+06  1.013250E+06  1.013250E+06  1.013250E+06  1.013250E+06  1.013250E+06  1.013250E+06  1.013250E+06  1.013250E+06
 1.013250E+06  1.013250E+06  1.013250E+06  1.013250E+06  1.013250E+06  1.013250E+06  1.013250E+06  1.013250E+06  1.013250E+06  1.013250E+06
 1.013250E+06  1.013250E+06  1.013250E+06  1.013250E+06  1.013250E+06  1.013250E+06  1.013250E+06  1.013250E+06  1.013250E+06  1.013250E+06
 1.013250E+06  1.013250E+06  1.013250E+06  1.013250E+06  1.013250E+06  1.013250E+06  1.013250E+06  1.013250E+06  1.013250E+06  1.013250E+06
 1.013250E+06  1.013250E+06  1.013250E+06  1.013250E+06  1.013250E+06  1.013250E+06  1.013250E+06  1.013250E+06  1.013250E+06  1.013250E+06
 1.013250E+06  1.013250E+06  1.013250E+06  1.013250E+06  1.013250E+06  1.013250E+06  1.013250E+06  1.013250E+06  1.013250E+06  1.013250E+06
 1.013250E+06  1.013250E+06  1.013250E+06  1.013250E+06  1.013250E+06  1.013250E+06  1.013250E+06  1.013250E+06  1.013250E+06  1.013250E+06
 1.013250E+06  1.013250E+06  1.013250E+06  1.013250E+06  1.013250E+06  1.013250E+06  1.013250E+06  1.013250E+06  1.013250E+06  1.013250E+06
 1.013250E+06  1.013250E+06  1.013250E+06  1.013250E+06  1.013250E+06  1.013250E+06  1.013250E+06  1.013250E+06  1.013250E+06  1.013250E+06
 1.013250E+06  1.013250E+06  1.013250E+06  1.013250E+06  1.013250E+06  1.013250E+06  1.013250E+06  1.013250E+06  1.013250E+06  1.013250E+06
 1.013250E+06  1.013250E+06  1.013250E+06  1.013250E+06  1.013250E+06  1.013250E+06  1.013250E+06  1.013250E+06  1.013250E+06  1.013250E+06
 1.013250E+06  1.013250E+06  1.013250E+06  1.013250E+06  1.013250E+06  1.013250E+06  1.013250E+06  1.013250E+06  1.013250E+06  1.013250E+06
 1.013250E+06  1.013250E+06  1.013250E+06  1.013250E+06  1.013250E+06  1.013250E+06  1.013250E+06  1.013250E+06  1.013250E+06  1.013250E+06
 1.013250E+06  1.013250E+06  1.013250E+06  1.013250E+06  1.013250E+06  1.013250E+06  1.013250E+06  1.013250E+06  1.013250E+06  1.013250E+06
 1.013250E+06  1.013250E+06  1.013250E+06  1.013250E+06  1.013250E+06  1.013250E+06  1.013250E+06  1.013250E+06  1.013250E+06  1.013250E+06
 1.013250E+06  1.013250E+06  1.013250E+06  1.013250E+06  1.013250E+06  1.013250E+06  1.013250E+06  1.013250E+06  1.013250E+06  1.013250E+06
 1.013250E+06  1.013250E+06  1.013250E+06  1.013250E+06  1.013250E+06  1.013250E+06  1.013250E+06  1.013250E+06  1.013250E+06  1.013250E+06
 1.013250E+06  1.013250E+06  1.013250E+06  1.013250E+06  1.013250E+06  1.013250E+06  1.013250E+06  1.013250E+06  1.013250E+06  1.013250E+06
 1.013250E+06  1.013250E+06  1.013250E+06  1.013250E+06  1.013250E+06  1.013250E+06  1.013250E+06  1.013250E+06  1.013250E+06  1.013250E+06
 1.013250E+06  1.013250E+06  1.013250E+06  1.013250E+06  1.013250E+06  1.013250E+06  1.013250E+06  1.013250E+06  1.013250E+06  1.013250E+06
 1.013250E+06  1.013250E+06  1.013250E+06  1.013250E+06  1.013250E+06  1.013250E+06  1.013250E+06  1.013250E+06  1.013250E+06  1.013250E+06
 1.013250E+06  1.013250E+06  1.013250E+06  1.013250E+06  1.013250E+06  1.013250E+06  1.013250E+06  1.013250E+06  1.013250E+06  1.013250E+06
 1.013250E+06  1.013250E+06  1.013250E+06  1.013250E+06  1.013250E+06  1.013250E+06  1.013250E+06  1.013250E+06  1.013250E+06  1.013250E+06
 1.013250E+06  1.013250E+06  1.013250E+06  1.013250E+06  1.013250E+06  1.013250E+06  1.013250E+06  1.013250E+06  1.013250E+06  1.013250E+06
 1.013250E+06  1.013250E+06  1.013250E+06  1.013250E+06  1.013250E+06  1.013250E+06  1.013250E+06  1.013250E+06  1.013250E+06  1.013250E+06
 1.013250E+06  1.013250E+06  1.013250E+06  1.013250E+06  1.013250E+06  1.013250E+06  1.013250E+06  1.013250E+06  1.013250E+06  1.013250E+06
 1.013250E+06  1.013250E+06  1.013250E+06  1.013250E+06  1.013250E+06  1.013250E+06  1.013250E+06  1.013250E+06  1.013250E+06  1.013250E+06
 1.013250E+06  1.013250E+06  1.013250E+06  1.013250E+06  1.013250E+06  1.013250E+06  1.013250E+06  1.013250E+06  1.013250E+06  1.013250E+06
 1.013250E+06  1.013250E+06  1.013250E+06  1.013250E+06  1.013250E+06  1.013250E+06  1.013250E+06  1.013250E+06  1.013250E+06  1.013250E+06
 1.013250E+06  1.013250E+06  1.013250E+06  1.013250E+06  1.013250E+06  1.013250E+06  1.013250E+06  1.013250E+06  1.013250E+06  1.013250E+06
 1.013250E+06  1.013250E+06  1.013250E+06  1.013250E+06  1.013250E+06  1.013250E+06  1.013250E+06  1.013250E+06  1.013250E+06  1.013250E+06
 1.013250E+06  1.013250E+06  1.013250E+06  1.013250E+06  1.013250E+06  1.013250E+06  1.013250E+06  1.013250E+06  1.013250E+06  1.013250E+06
 1.013250E+06  1.013250E+06  1.013250E+06  1.013250E+06  1.013250E+06  1.013250E+06  1.013250E+06  1.013250E+06  1.013250E+06  1.013250E+06
 1.013250E+06  1.013250E+06  1.013250E+06  1.013250E+06  1.013250E+06  1.013250E+06  1.013250E+06  1.013250E+06  1.013250E+06  1.013250E+06
 1.013250E+06  1.013250E+06  1.013250E+06  1.013250E+06  1.013250E+06  1.013250E+06  1.013250E+06  1.013250E+06  1.013250E+06  1.013250E+06
 1.013250E+06  1.013250E+06  1.013250E+06  1.013250E+06  1.013250E+06  1.013250E+06  1.013250E+06  1.013250E+06  1.013250E+06  1.013250E+06
 1.013250E+06  1.013250E+06  1.013250E+06  1.013250E+06  1.013250E+06  1.013250E+06  1.013250E+06  1.013250E+06  1.013250E+06  1.013250E+06
 1.013250E+06  1.013250E+06  1.013250E+06  1.013250E+06  1.013250E+06  1.013250E+06  1.013250E+06  1.013250E+06  1.013250E+06  1.013250E+06
 1.013250E+06  1.013250E+06  1.013250E+06  1.013250E+06  1.013250E+06  1.013250E+06  1.013250E+06  1.013250E+06  1.013250E+06  1.013250E+06
 1.013250E+06  1.013250E+06  1.013250E+06  1.013250E+06  1.013250E+06  1.013250E+06  1.013250E+06  1.013250E+06  1.013250E+06  1.013250E+06
 1.013250E+06  1.013250E+06  1.013250E+06  1.013250E+06  1.013250E+06  1.013250E+06  1.013250E+06  1.013250E+06  1.013250E+06  1.013250E+06
 1.013250E+06  1.013250E+06  1.013250E+06  1.013250E+06  1.013250E+06  1.013250E+06  1.013250E+06  1.013250E+06  1.013250E+06  1.013250E+06
 1.013250E+06  1.013250E+06  1.013250E+06  1.013250E+06  1.013250E+06  1.013250E+06  1.013250E+06  1.013250E+06  1.013250E+06  1.013250E+06
 1.013250E+06  1.013250E+06  1.013250E+06  1.013250E+06  1.013250E+06  1.013250E+06  1.013250E+06  1.013250E+06  1.013250E+06  1.013250E+06
 1.013250E+06  1.013250E+06  1.013250E+06  1.013250E+06  1.013250E+06  1.013250E+06  1.013250E+06  1.013250E+06  1.013250E+06  1.013250E+06
 1.013250E+06  1.013250E+06  1.013250E+06  1.013250E+06  1.013250E+06  1.013250E+06  1.013250E+06  1.013250E+06  1.013250E+06  1.013250E+06
 1.013250E+06  1.013250E+06  1.013250E+06  1.013250E+06  1.013250E+06  1.013250E+06  1.013250E+06  1.013250E+06  1.013250E+06  1.013250E+06
 1.013250E+06  1.013250E+06  1.013250E+06  1.013250E+06  1.013250E+06  1.013250E+06  1.013250E+06  1.013250E+06  1.013250E+06  1.013250E+06
 1.013250E+06  1.013250E+06  1.013250E+06  1.013250E+06  1.013250E+06  1.013250E+06  1.013250E+06  1.013250E+06  1.013250E+06  1.013250E+06
 1.013250E+06  1.013250E+06  1.013250E+06  1.013250E+06  1.013250E+06  1.013250E+06  1.013250E+06  1.013250E+06  1.013250E+06  1.013250E+06
 1.013250E+06  1.013250E+06  1.013250E+06  1.013250E+06  1.013250E+06  1.013250E+06  1.013250E+06  1.013250E+06  1.013250E+06  1.013250E+06
 1.013250E+06  1.013250E+06  1.013250E+06  1.013250E+06  1.013250E+06  1.013250E+06  1.013250E+06  1.013250E+06  1.013250E+06  1.013250E+06
 1.013250E+06  1.013250E+06  1.013250E+06  1.013250E+06  1.013250E+06  1.013250E+06  1.013250E+06  1.013250E+06  1.013250E+06  1.013250E+06
 1.013250E+06  1.013250E+06  1.013250E+06  1.013250E+06  1.013250E+06  1.013250E+06  1.013250E+06  1.013250E+06  1.013250E+06  1.013250E+06
 1.013250E+06  1.013250E+06  1.013250E+06  1.013250E+06  1.013250E+06  1.013250E+06  1.013250E+06  1.013250E+06  1.013250E+06  1.013250E+06
 1.013250E+06  1.013250E+06  1.013250E+06  1.013250E+06  1.013250E+06  1.013250E+06  1.013250E+06  1.013250E+06  1.013250E+06  1.013250E+06
 1.013250E+06  1.013250E+06  1.013250E+06  1.013250E+06  1.013250E+06  1.013250E+06  1.013250E+06  1.013250E+06  1.013250E+06  1.013250E+06
 1.013250E+06  1.013250E+06  1.013250E+06  1.013250E+06  1.013250E+06  1.013250E+06  1.013250E+06  1.013250E+06  1.013250E+06  1.013250E+06
 1.013250E+06  1.013250E+06  1.013250E+06  1.013250E+06  1.013250E+06  1.013250E+06  1.013250E+06  1.013250E+06  1.013250E+06  1.013250E+06
 1.013250E+06  1.013250E+06  1.013250E+06  1.013250E+06  1.013250E+06  1.013250E+06  1.013250E+06  1.013250E+06  1.013250E+06  1.013250E+06
 1.013250E+06  1.013250E+06  1.013250E+06  1.013250E+06  1.013250E+06  1.013250E+06  1.013250E+06  1.013250E+06  1.013250E+06  1.013250E+06
 1.013250E+06  1.013250E+06  1.013250E+06  1.013250E+06  1.013250E+06  1.013250E+06  1.013250E+06  1.013250E+06  1.013250E+06  1.013250E+06
 1.013250E+06  1.013250E+06  1.013250E+06  1.013250E+06  1.013250E+06  1.013250E+06  1.013250E+06  1.013250E+06  1.013250E+06  1.013250E+06
 1.013250E+06  1.013250E+06  1.013250E+06  1.013250E+06  1.013250E+06  1.013250E+06  1.013250E+06  1.013250E+06  1.013250E+06  1.013250E+06
 1.013250E+06  1.013250E+06  1.013250E+06  1.013250E+06  1.013250E+06  1.013250E+06  1.013250E+06  1.013250E+06  1.013250E+06  1.013250E+06
 1.013250E+06  1.013250E+06  1.013250E+06  1.013250E+06  1.013250E+06  1.013250E+06  1.013250E+06  1.013250E+06  1.013250E+06  1.013250E+06