# vtk DataFile Version 2.0
PFLOTRAN output
ASCII
DATASET UNSTRUCTURED_GRID
POINTS 14198 double
-5.000000000004 -3.681780171809 5.000000000002
-5.000000000003 -3.755272480227 4.778890890626
-5.000000000003 -3.849902186526 4.494187762767
-5.000000000003 -3.947350011628 4.201006036914
-5.000000000003 -4.043096186408 3.912943899701
-5.000000000002 -4.156384648855 3.572103999942
-5.000000000002 -4.260505817711 3.258844838426
-5.000000000002 -4.362253849687 2.95272550138
-5.000000000002 -4.44002090829 2.718755369859
-5.000000000001 -4.502248914293 2.531536063762
-5.000000000001 -4.745717360494 1.799036398705
-5.000000000001 -4.57248081981 2.320236209218
-5.000000000001 -4.633817442217 2.135698721631
-5.000000000001 -4.688882845171 1.970028837713
-5.000000000001 -4.783766349175 1.684562133558
-5.000000000001 -4.826223233388 1.556826264905
-5.0 -4.867944863317 1.431302483791
-5.0 -4.946252203447 1.195706860164
-5.0 -5.000000000001 1.034001129552
-4.950618450089 -5.000000000001 0.8709090344792
-4.924941340483 -4.690590494084 1.716995498626
-4.906399080533 -4.597089214109 1.937064250158
-4.901649054923 -4.710895774275 1.578977724609
-4.90058496251 -4.824639572923 1.233253528953
-4.893096134193 -4.759246876992 1.405260827406
-4.891763457237 -5.000000000001 0.6765290665139
-4.874703186322 -4.869557421998 1.012634037514
-4.865559539864 -4.428851557494 2.308343946179
-4.849882680965 -4.635463627674 1.634954598547
-4.843089635808 -3.509531818395 5.000000000002
-4.839752708827 -3.582352864666 4.769889606193
-4.838670157784 -3.699641601769 4.413439138266
-4.835563617304 -4.263008560844 2.708232204049
-4.834489063473 -3.91894907172 3.739821365196
-4.82138634136 -4.084176420028 3.199443759733
-4.820586320521 -5.000000000001 0.4414528413029
-4.818367354481 -4.4455604238 2.102212320492
-4.809622452613 -3.793414106101 4.035379339899
-4.808729972456 -4.867073913805 0.8022166592582
-4.808365529301 -4.517236205407 1.853535460226
-4.804607971077 -4.645693004182 1.454650011849
-4.791935935204 -4.74610363503 1.110702539462
-4.787029876092 -4.283844026701 2.485254535583
-4.776421846895 -4.673839787083 1.276877430595
-4.774824021452 -4.580336761268 1.552913698476
-4.747246692255 -3.912169451089 3.47208378429
-4.744684471823 -4.102736587773 2.890280879942
-4.744587416338 -4.867488015319 0.5891276268889
-4.743270005499 -5.000000000001 0.1861007953863
-4.729665522316 -4.736119557549 0.9350806038632
-4.718495740568 -4.406980637332 1.888438273161
-4.717900878226 -3.481421286062 4.671113382224
-4.711591692957 -4.461415456237 1.701863616567
-4.700370939383 -4.265671070779 2.253721871549
-4.699765361934 -4.525209894858 1.470872798397
-4.698232517221 -3.350514915432 5.000000000002
-4.687685693732 -5.000000000001 0.002522882671657
-4.673570664055 -4.618544329356 1.103553584805
-4.671009779292 -3.579251576454 4.221914070247
-4.668240289579 -4.732144193011 0.7441722127157
-4.666514572534 -4.854575667332 0.3701251152834
-4.655225227473 -4.545476494207 1.262796279597
-4.651772095887 -4.277632588494 2.057227368751
-4.635298567485 -3.466403744643 4.443485121511
-4.635288692639 -4.076686624275 2.607354188435
-4.633758500194 -5.000000000001 -0.1755820774043
-4.628136314045 -3.703312666169 3.707065732106
-4.624706702415 -4.470083028448 1.388831898319
-4.618871540626 -4.419475751252 1.521817308461
-4.615195422016 -3.849054407613 3.225847038373
-4.611098646321 -3.591193621169 3.988117135647
-4.602942678493 -4.115758024367 2.382974942448
-4.602810949093 -4.731755487009 0.5292486550693
-4.602432435767 -4.848333209682 0.1772625669878
-4.600209484248 -4.298584145158 1.823897000345
-4.593131306584 -4.588977240318 0.9268426932526
-4.587834751746 -3.902466268733 2.97478811192
-4.581970963557 -5.000000000001 -0.3466204077948
-4.574870275535 -3.304561777672 4.730827102506
-4.562951983156 -4.484668857177 1.140992070355
-4.560572946127 -4.868896021942 -0.02285179192197
-4.559176148571 -3.197865785755 5.000000000002
-4.550406095806 -4.308863970367 1.628483799
-4.549648042897 -4.414956162038 1.30679099824
-4.544336283064 -4.606841929599 0.7119399740405
-4.533742215 -5.000000000001 -0.505905154
-4.522379740883 -4.167541518593 1.961104372502
-4.512193812598 -4.881895492489 -0.2217434471805
-4.512082631615 -3.679857086815 3.394344561274
-4.510931700653 -3.910347070158 2.697090754572
-4.504238204023 -4.07350367254 2.184110903141
-4.497010407048 -4.315185890677 1.433114093623
-4.491800509724 -3.30466960763 4.456148757996
-4.486159607327 -4.675063848831 0.3145476735107
-4.482255865025 -5.000000000001 -0.6759487573343
-4.481237620858 -4.598963915453 0.5272462788306
-4.474589383384 -4.359829295632 1.224750098169
-4.473816882365 -3.378992927768 4.17314506638
-4.470300908645 -4.478464471973 0.8536605489169
-4.466493288489 -4.725846614038 0.09681073036601
-4.465313415311 -4.414215473255 1.030488058927
-4.46035539258 -3.470844540553 3.852340949395
-4.458702816662 -4.890159237389 -0.4232701003307
-4.456635001945 -4.163866755505 1.755025588684
-4.44847987615 -3.076348951916 5.000000000002
-4.43801094678 -4.759658401975 -0.09898391214892
-4.435215555528 -5.000000000001 -0.8313084542768
-4.419818559989 -3.682342959213 3.08214566473
-4.416890095414 -3.176422734673 4.594586467521
-4.414115632934 -3.905149914026 2.392973188126
-4.41143078158 -3.106133490717 4.788028393484
-4.408158135836 -3.515998177634 3.544100114467
-4.4078601105 -4.185267396026 1.529551089404
-4.407176028218 -4.892997670829 -0.6019869761575
-4.405003774891 -4.468280684365 0.6686431320533
-4.39953072387 -4.304702429229 1.142709198083
-4.398944429123 -4.784963477611 -0.3041415255676
-4.391503396685 -4.027176748384 1.951161732296
-4.386047716062 -5.000000000001 -0.9936947293772
-4.385133317654 -4.235429846986 1.30357261914
-4.379535921293 -3.729348652602 2.807683054031
-4.371067983079 -4.360263197934 0.8815452633731
-4.368167963592 -4.506278615796 0.4326651048211
-4.34840540064 -2.966492195711 5.000000000002
-4.346136147459 -4.581786513274 0.1327275670122
-4.34588018826 -3.169868556157 4.379781465086
-4.343270932078 -5.000000000001 -1.134973310812
-4.336747497835 -4.881063964647 -0.7986870117222
-4.329256258281 -4.675633792394 -0.2053706392501
-4.328154296201 -3.897205724322 2.132970195636
-4.328101612223 -4.617135390654 -0.03318566951773
-4.324472064351 -4.249575562819 1.060668298005
-4.323387360386 -4.032112279483 1.71134633279
-4.323162881415 -3.276144666735 3.98501065311
-4.312038350385 -3.340988788904 3.753179584741
-4.303166849752 -4.124315890535 1.367160222823
-4.2969766801 -3.507968949423 3.201058660628
-4.296393569225 -3.736212955561 2.512437440919
-4.292932073859 -4.378669193404 0.5681100338998
-4.292929009815 -4.784483794763 -0.6528347251044
-4.291929071742 -5.000000000001 -1.304539709238
-4.287845682066 -4.484069085841 0.2342049118628
-4.28725435215 -4.713777087989 -0.458848034203
-4.28499675251 -4.315861438282 0.7308656447766
-4.278233582249 -3.156770463639 4.195772446548
-4.271752125935 -4.036621211569 1.527245427458
-4.264879783657 -3.007017516486 4.602215973541
-4.254586735971 -4.126292771848 1.20076737602
-4.254330321741 -2.863221277177 5.000000000002
-4.254293650702 -4.829608170671 -0.9161967415776
-4.250901838235 -2.917260243781 4.826095026399
-4.249413404833 -4.194448696409 0.9786273979259
-4.248336916443 -3.895336539818 1.874981533254
-4.241765375802 -5.000000000001 -1.470214992459
-4.237960680977 -4.696479335154 -0.5696078382421
-4.234324890117 -4.364172908176 0.4181620567062
-4.224040583443 -3.529366167586 2.89579741656
-4.223487772549 -4.557391262625 -0.1989467509817
-4.220637188205 -3.362022113013 3.388028711972
-4.21862492616 -4.840778104964 -1.067605472597
-4.21403856112 -4.886179986779 -1.219349022387
-4.204075240162 -4.123061711071 1.043664392694
-4.202538206282 -3.276006649332 3.587039632491
-4.201205376287 -3.713284024287 2.267044099928
-4.20040171499 -3.583868962181 2.653748273921
-4.188667009808 -4.679181582325 -0.6803676422877
-4.187412623114 -4.457729428364 -0.01824909312746
-4.187238657243 -4.19685459025 0.7660449223749
-4.184585029246 -2.990098468584 4.387929739067
-4.183877458138 -5.000000000001 -1.661401008051
-4.177727282226 -3.174819622734 3.809528264491
-4.177565571749 -4.568217675287 -0.383186045521
-4.17435474532 -4.139321830003 0.8965864978544
-4.171949842191 -3.975909889083 1.380285340903
-4.164857109423 -4.229607611783 0.5935847353915
-4.162124143981 -3.084242146386 4.030507470886
-4.161505481912 -4.883757098629 -1.385560144702
-4.156245206075 -4.326409031467 0.2739053140189
-4.153901148159 -3.880176119664 1.608700861402
-4.149994893663 -2.827637147759 4.76247060533
-4.14998490005 -3.73820900802 2.022889238881
-4.139373338639 -4.661883829497 -0.7911274463333
-4.136908648598 -5.000000000001 -1.816524562591
-4.121986284085 -4.340813759989 0.1174205193687
-4.117675540903 -3.979610153128 1.189901368545
-4.113869703695 -4.589064142352 -0.6562726611616
-4.112081090972 -3.305295320648 3.200169602148
-4.108467010972 -2.853167941308 4.548504763676
-4.107962994383 -3.767631601044 1.795582915185
-4.107586236413 -4.453749729693 -0.26991780544
-4.107552670303 -2.959333024194 4.226076491779
-4.106477526984 -4.23049900962 0.398093040674
-4.104322977125 -2.698550713557 4.999999999999
-4.099296085802 -4.084194963593 0.8145455977757
-4.09787349004 -4.886123799416 -1.602837534317
-4.094211236856 -3.372437511111 2.939146830036
-4.09007966747 -4.644586076668 -0.901887250379
-4.086242895012 -3.540319281317 2.407740406772
-4.085160411498 -5.000000000001 -1.987433098677
-4.081328956215 -4.74685552192 -1.238476224545
-4.078768178415 -3.197100572988 3.415662220868
-4.07388722975 -4.48784181547 -0.483784794998
-4.061144047637 -2.689798176164 4.883726157353
-4.059152158452 -4.788662640779 -1.437500360698
-4.055787996689 -3.968147870486 1.019991261676
-4.050806579788 -4.572616392826 -0.8150660608934
-4.047977747399 -3.013249656872 3.867105124615
-4.043013939106 -4.304729886138 -0.03483886830677
-4.04233769249 -3.824770975644 1.406933056263
-4.041990622289 -4.126180590662 0.4989652059344
[...]
POINT_DATA    14198
SCALARS Liquid_Pressure      float 1
LOOKUP_TABLE default
 1.013250E+06  1.013250E+06  1.013250E+06  1.013250E+06  1.013250E+06  1.013250E+06  1.013250E+06  1.013250E+06  1.013250E+06  1.013250E+06
 1.013250E+06  1.013250E+06  1.013250E+06  1.013250E+06  1.013250E+06  1.013250E+06  1.013250E+06  1.013250E+06  1.013250E+06  1.013250E+06
 1.013250E+06  1.013250E+06  1.013250E+06  1.013250E+06  1.013250E+06  1.013250E+06  1.013250E+06  1.013250E+06  1.013250E+06  1.013250E+06
 1.013250E+06  1.013250E+06  1.013250E+06  1.013250E+06  1.013250E+06  1.013250E+06  1.013250E+06  1.013250E+06  1.013250E+06  1.013250E+06
 1.013250E+06  1.013250E+06  1.013250E+06  1.013250E+06  1.013250E+06  1.013250E+06  1.013250E+06  1.013250E+06  1.013250E+06  1.013250E+06
 1.013250E+06  1.013250E+06  1.013250E+06  1.013250E+06  1.013250E+06  1.013250E+06  1.013250E+06  1.013250E+06  1.013250E+06  1.013250E+06
 1.013250E+06  1.013250E+06  1.013250E+06  1.013250E+06  1.013250E+06  1.013250E+06  1.013250E+06  1.013250E+06  1.013250E+06  1.013250E+06
 1.013250E+06  1.013250E+06  1.013250E+06  1.013250E+06  1.013250E+06  1.013250E+06  1.013250E+06  1.013250E+06  1.013250E+06  1.013250E+06
 1.013250E+06  1.013250E+06  1.013250E+06  1.013250E+06  1.013250E+06  1.013250E+06  1.013250E+06  1.013250E+06  1.013250E+06  1.013250E+06
 1.013250E+06  1.013250E+06  1.013250E+06  1.013250E+06  1.013250E+06  1.013250E+06  1.013250E+06  1.013250E+06  1.013250E+06  1.013250E+06
 1.013250E+06  1.013250E+06  1.013250E+06  1.013250E+06  1.013250E+06  1.013250E+06  1.013250E+06  1.013250E+06  1.013250E+06  1.013250E+06
 1.013250E+06  1.013250E+06  1.013250E+06  1.013250E+06  1.013250E+06  1.013250E+06  1.013250E+06  1.013250E+06  1.013250E+06  1.013250E+06
 1.013250E+06  1.013250E+06  1.013250E+06  1.013250E+06  1.013250E+06  1.013250E+06  1.013250E+06  1.013250E+06  1.013250E+06  1.013250E+06
 1.013250E+06  1.013250E+06  1.013250E+06  1.013250E+06  1.013250E+06  1.013250E+06  1.013250E+06  1.013250E+06  1.013250E+06  1.013250E+06
 1.013250E+06  1.013250E+06  1.013250E+06  1.013250E+06  1.013250E+06  1.013250E+06  1.013250E+06  1.013250E+06  1.013250E+06  1.013250E+06
 1.013250E+06  1.013250E+06  1.013250E+06  1.013250E+06  1.013250E+06  1.013250E+06  1.013250E+06  1.013250E+06  1.013250E+06  1.013250E+06
 1.013250E+06  1.013250E+06  1.013250E+06  1.013250E+06  1.013250E+06  1.013250E+06  1.013250E+06  1.013250E+06  1.013250E+06  1.013250E+06
 1.013250E+06  1.013250E+06  1.013250E+06  1.013250E+06  1.013250E+06  1.013250E+06  1.013250E+06  1.013250E+06  1.013250E+06  1.013250E+06
 1.013250E+06  1.013250E+06  1.013250E+06  1.013250E+06  1.013250E+06  1.013250E+06  1.013250E+06  1.013250E+06  1.013250E+06  1.013250E+06
 1.013250E+06  1.013250E+06  1.013250E+06  1.013250E+06  1.013250E+06  1.013250E+06  1.013250E+06  1.013250E+06  1.013250E+06  1.013250E+06
 1.013250E+06  1.013250E+06  1.013250E+06  1.013250E+06  1.013250E+06  1.013250E+06  1.013250E+06  1.013250E+06  1.013250E+06  1.013250E+06
 1.013250E+06  1.013250E+06  1.013250E+06  1.013250E+06  1.013250E+06  1.013250E+06  1.013250E+06  1.013250E+06  1.013250E+06  1.013250E+06
 1.013250E+06  1.013250E+06  1.013250E+06  1.013250E+06  1.013250E+06  1.013250E+06  1.013250E+06  1.013250E+06  1.013250E+06  1.013250E+06
 1.013250E+06  1.013250E+06  1.013250E+06  1.013250E+06  1.013250E+06  1.013250E+06  1.013250E+06  1.013250E+06  1.013250E+06  1.013250E+06
 1.013250E+06  1.013250E+06  1.013250E+06  1.013250E+06  1.013250E+06  1.013250E+06  1.013250E+06  1.013250E+06  1.013250E+06  1.013250E+06
 1.013250E+06  1.013250E+06  1.013250E+06  1.013250E+06  1.013250E+06  1.013250E+06  1.013250E+06  1.013250E+06  1.013250E+06  1.013250E+06
 1.013250E+06  1.013250E+06  1.013250E+06  1.013250E+06  1.013250E+06  1.013250E+06  1.013250E+06  1.013250E+06  1.013250E+06  1.013250E+06
 1.013250E+06  1.013250E+06  1.013250E+06  1.013250E+06  1.013250E+06  1.013250E+06  1.013250E+06  1.013250E+06  1.013250E+06  1.013250E+06
 1.013250E+06  1.013250E+06  1.013250E+06  1.013250E+06  1.013250E+06  1.013250E+06  1.013250E+06  1.013250E+06  1.013250E+06  1.013250E+06
 1.013250E+06  1.013250E+06  1.013250E+06  1.013250E+06  1.013250E+06  1.013250E+06  1.013250E+06  1.013250E+06  1.013250E+06  1.013250E+06
 1.013250E+06  1.013250E+06  1.013250E+06  1.013250E+06  1.013250E+06  1.013250E+06  1.013250E+06  1.013250E+06  1.013250E+06  1.013250E+06
 1.013250E+06  1.013250E+06  1.013250E+06  1.013250E+06  1.013250E+06  1.013250E+06  1.013250E+06  1.013250E+06  1.013250E+06  1.013250E+06
 1.013250E+06  1.013250E+06  1.013250E+06  1.013250E+06  1.013250E+06  1.013250E+06  1.013250E+06  1.013250E+06  1.013250E+06  1.013250E+06
 1.013250E+06  1.013250E+06  1.013250E+06  1.013250E+06  1.013250E+06  1.013250E+06  1.013250E+06  1.013250E+06  1.013250E+06  1.013250E+06
 1.013250E+06  1.013250E+06  1.013250E+06  1.013250E+06  1.013250E+06  1.013250E+06  1.013250E+06  1.013250E+06  1.013250E+06  1.013250E+06
 1.013250E+06  1.013250E+06  1.013250E+06  1.013250E+06  1.013250E+06  1.013250E+06  1.013250E+06  1.013250E+06  1.013250E+06  1.013250E+06
 1.013250E+06  1.013250E+06  1.013250E+06  1.013250E+06  1.013250E+06  1.013250E+06  1.013250E+06  1.013250E+06  1.013250E+06  1.013250E+06
 1.013250E+06  1.013250E+06  1.013250E+06  1.013250E+06  1.013250E+06  1.013250E+06  1.013250E+06  1.013250E+06  1.013250E+06  1.013250E+06
 1.013250E+06  1.013250E+06  1.013250E+06  1.013250E+06  1.013250E+06  1.013250E+06  1.013250E+06  1.013250E+06  1.013250E+06  1.013250E+06
 1.013250E+06  1.013250E+06  1.013250E+06  1.013250E+06  1.013250E+06  1.013250E+06  1.013250E+06  1.013250E+06  1.013250E+06  1.013250E+06
 1.013250E+06  1.013250E+06  1.013250E+06  1.013250E+06  1.013250E+06  1.013250E+06  1.013250E+06  1.013250E+06  1.013250E+06  1.013250E+06
 1.013250E+06  1.013250E+06  1.013250E+06  1.013250E+06  1.013250E+06  1.013250E+06  1.013250E+06  1.013250E+06  1.013250E+06  1.013250E+06
 1.013250E+06  1.013250E+06  1.013250E+06  1.013250E+06  1.013250E+06  1.013250E+06  1.013250E+06  1.013250E+06  1.013250E+06  1.013250E+06
 1.013250E+06  1.013250E+06  1.013250E+06  1.013250E+06  1.013250E+06  1.013250E+06  1.013250E+06  1.013250E+06  1.013250E+06  1.013250E+06
 1.013250E+06  1.013250E+06  1.013250E+06  1.013250E+06  1.013250E+06  1.013250E+06  1.013250E+06  1.013250E+06  1.013250E+06  1.013250E+06
 1.013250E+06  1.013250E+06  1.013250E+06  1.013250E+06  1.013250E+06  1.013250E+06  1.013250E+06  1.013250E+06  1.013250E+06  1.013250E+06
 1.013250E+06  1.013250E+06  1.013250E+06  1.013250E+06  1.013250E+06  1.013250E+06  1.013250E+06  1.013250E+06  1.013250E+06  1.013250E+06
 1.013250E+06  1.013250E+06  1.013250E+06  1.013250E+06  1.013250E+06  1.013250E+06  1.013250E+06  1.013250E+06  1.013250E+06  1.013250E+06
 1.013250E+06  1.013250E+06  1.013250E+06  1.013250E+06  1.013250E+06  1.013250E+06  1.013250E+06  1.013250E+06  1.013250E+06  1.013250E+06
 1.013250E+06  1.013250E+06  1.013250E+06  1.013250E+06  1.013250E+06  1.013250E+06  1.013250E+06  1.013250E+06  1.013250E+06  1.013250E+06
 1.013250E+06  1.013250E+06  1.013250E+06  1.013250E+06  1.013250E+06  1.013250E+06  1.013250E+06  1.013250E+06  1.013250E+06  1.013250E+06
 1.013250E+06  1.013250E+06  1.013250E+06  1.013250E+06  1.013250E+06  1.013250E+06  1.013250E+06  1.013250E+06  1.013250E+06  1.013250E+06
 1.013250E+06  1.013250E+06  1.013250E+06  1.013250E+06  1.013250E+06  1.013250E+06  1.013250E+06  1.013250E+06  1.013250E+06  1.013250E+06
 1.013250E+06  1.013250E+06  1.013250E+06  1.013250E+06  1.013250E+06  1.013250E+06  1.013250E+06  1.013250E+06  1.013250E+06  1.013250E+06
 1.013250E+06  1.013250E+06  1.013250E+06  1.013250E+06  1.013250E+06  1.013250E+06  1.013250E+06  1.013250E+06  1.013250E+06  1.013250E+06
 1.013250E+06  1.013250E+06  1.013250E+06  1.013250E+06  1.013250E+06  1.013250E+06  1.013250E+06  1.013250E+06  1.013250E+06  1.013250E+06
 1.013250E+06  1.013250E+06  1.013250E+06  1.013250E+06  1.013250E+06  1.013250E+06  1.013250E+06  1.013250E+06  1.013250E+06  1.013250E+06
 1.013250E+06  1.013250E+06  1.013250E+06  1.013250E+06  1.013250E+06  1.013250E+06  1.013250E+06  1.013250E+06  1.013250E+06  1.013250E+06
 1.013250E+06  1.013250E+06  1.013250E+06  1.013250E+06  1.013250E+06  1.013250E+06  1.013250E+06  1.013250E+06  1.013250E+06  1.013250E+06
 1.013250E+06  1.013250E+06  1.013250E+06  1.013250E+06  1.013250E+06  1.013250E+06  1.013250E+06  1.013250E+06  1.013250E+06  1.013250E+06
 1.013250E+06  1.013250E+06  1.013250E+06  1.013250E+06  1.013250E+06  1.013250E+06  1.013250E+06  1.013250E+06  1.013250E+06  1.013250E+06
 1.013250E+06  1.013250E+06  1.013250E+06  1.013250E+06  1.013250E+06  1.013250E+06  1.013250E+06  1.013250E+06  1.013250E+06  1.013250E+06
 1.013250E+06  1.013250E+06  1.013250E+06  1.013250E+06  1.013250E+06  1.013250E+06  1.013250E+06  1.013250E+06  1.013250E+06  1.013250E+06
 1.013250E+06  1.013250E+06  1.013250E+06  1.013250E+06  1.013250E+06  1.013250E+06  1.013250E+06  1.013250E+06  1.013250E+06  1.013250E+06
 1.013250E+06  1.013250E+06  1.013250E+06  1.013250E+06  1.013250E+06  1.013250E+06  1.013250E+06  1.013250E+06  1.013250E+06  1.013250E+06
 1.013250E+06  1.013250E+06  1.013250E+06  1.013250E+06  1.013250E+06  1.013250E+06  1.013250E+06  1.013250E+06  1.013250E+06  1.013250E+06
 1.013250E+06  1.013250E+06  1.013250E+06  1.013250E+06  1.013250E+06  1.013250E+06  1.013250E+06  1.013250E+06  1.013250E+06  1.013250E+06
 1.013250E+06  1.013250E+06  1.013250E+06  1.013250E+06  1.013250E+06  1.013250E+06  1.013250E+06  1.013250E+06  1.013250E+06  1.013250E+06
 1.013250E+06  1.013250E+06  1.013250E+06  1.013250E+06  1.013250E+06  1.013250E+06  1.013250E+06  1.013250E+06  1.013250E+06  1.013250E+06
 1.013250E+06  1.013250E+06  1.013250E+06  1.013250E+06  1.013250E+06  1.013250E+06  1.013250E+06  1.013250E+06  1.013250E+06  1.013250E+06
 1.013250E+06  1.013250E+06  1.013250E+06  1.013250E+06  1.013250E+06  1.013250E+06  1.013250E+06  1.013250E+06  1.013250E+06  1.013250E+06
 1.013250E+06  1.013250E+06  1.013250E+06  1.013250E+06  1.013250E+06  1.013250E+06  1.013250E+06  1.013250E+06  1.013250E+06  1.013250E+06
 1.013250E+06  1.013250E+06  1.013250E+06  1.013250E+06  1.013250E+06  1.013250E+06  1.013250E+06  1.013250E+06  1.013250E+06  1.013250E+06
 1.013250E+06  1.013250E+06  1.013250E+06  1.013250E+06  1.013250E+06  1.013250E+06  1.013250E+06  1.013250E+06  1.013250E+06  1.013250E+06
 1.013250E+06  1.013250E+06  1.013250E+06  1.013250E+06  1.013250E+06  1.013250E+06  1.013250E+06  1.013250E+06  1.013250E+06  1.013250E+06
 1.013250E+06  1.013250E+06  1.013250E+06  1.013250E+06  1.013250E+06  1.013250E+06  1.013250E+06  1.013250E+06  1.013250E+06  1.013250E+06
 1.013250E+06  1.013250E+06  1.013250E+06  1.013250E+06  1.013250E+06  1.013250E+06  1.013250E+06  1.013250E+06  1.013250E+06  1.013250E+06
 1.013250E+06  1.013250E+06  1.013250E+06  1.013250E+06  1.013250E+06  1.013250E+06  1.013250E+06  1.013250E+06  1.013250E+06  1.013250E+06
 1.013250E+06  1.013250E+06  1.013250E+06  1.013250E+06  1.013250E+06  1.013250E+06  1.013250E+06  1.013250E+06  1.013250E+06  1.013250E+06
 1.013250E+06  1.013250E+06  1.013250E+06  1.013250E+06  1.013250E+06  1.013250E+06  1.013250E+06  1.013250E+06  1.013250E+06  1.013250E+06
 1.013250E+06  1.013250E+06  1.013250E+06  1.013250E+06  1.013250E+06  1.013250E+06  1.013250E+06  1.013250E+06  1.013250E+06  1.013250E+06
 1.013250E+06  1.013250E+06  1.013250E+06  1.013250E+06  1.013250E+06  1.013250E+06  1.013250E+06  1.013250E+06  1.013250E+06  1.013250E+06
 1.013250E+06  1.013250E+06  1.013250E+06  1.013250E+06  1.013250E+06  1.013250E+06  1.013250E+06  1.013250E+06  1.013250E+06  1.013250E+06
 1.013250E+06  1.013250E+06  1.013250E+06  1.013250E+06  1.013250E+06  1.013250E+06  1.013250E+06  1.013250E+06  1.013250E+06  1.013250E+06
 1.013250E+06  1.013250E+06  1.013250E+06  1.013250E+06  1.013250E+06  1.013250E+06  1.013250E+06  1.013250E+06  1.013250E+06  1.013250E+06
 1.013250E+06  1.013250E+06  1.013250E+06  1.013250E+06  1.013250E+06  1.013250E+06  1.013250E+06  1.013250E+06  1.013250E+06  1.013250E+06
 1.013250E+06  1.013250E+06  1.013250E+06  1.013250E+06  1.013250E+06  1.013250E+06  1.013250E+06  1.013250E+06  1.013250E+06  1.013250E+06
 1.013250E+06  1.013250E+06  1.013250E+06  1.013250E+06  1.013250E+06  1.013250E+06  1.013250E+06  1.013250E+06  1.013250E+06  1.013250E+06
 1.013250E+06  1.013250E+06  1.013250E+06  1.013250E+06  1.013250E+06  1.013250E+06  1.013250E+06  1.013250E+06  1.013250E+06  1.013250E+06
 1.013250E+06  1.013250E+06  1.013250E+06  1.013250E+06  1.013250E+06  1.013250E+06  1.013250E+06  1.013250E+06  1.013250E+06  1.013250E+06
 1.013250E+06  1.013250E+06  1.013250E+06  1.013250E+06  1.013250E+06  1.013250E+06  1.013250E+06  1.013250E+06  1.013250E+06  1.013250E+06
 1.013250E+06  1.013250E+06  1.013250E+06  1.013250E+06  1.013250E+06  1.013250E+06  1.013250E+06  1.013250E+06  1.013250E+06  1.013250E+06
 1.013250E+06  1.013250E+06  1.013250E+06  1.013250E+06  1.013250E+06  1.013250E+06  1.013250E+06  1.013250E+06  1.013250E+06  1.013250E+06
 1.013250E+06  1.013250E+06  1.013250E+06  1.013250E+06  1.013250E+06  1.013250E+06  1.013250E+06  1.013250E+06  1.013250E+06  1.013250E+06
 1.013250E+06  1.013250E+06  1.013250E+06  1.013250E+06  1.013250E+06  1.013250E+06  1.013250E+06  1.013250E+06  1.013250E+06  1.013250E+06
 1.013250E+06  1.013250E+06  1.013250E+06  1.013250E+06  1.013250E+06  1.013250E+06  1.013250E+06  1.013250E+06  1.013250E+06  1.013250E+06
 1.013250E+06  1.013250E+06  1.013250E+06  1.013250E+06  1.013250E+06  1.013250E+06  1.013250E+06  1.013250E+06  1.013250E+06  1.013250E+06
 1.013250E+06  1.013250E+06  1.013250E+06  1.013250E+06  1.013250E+06  1.013250E+06  1.013250E+06  1.013250E+06  1.013250E+06  1.013250E+06
 1.013250E+06  1.013250E+06  1.013250E+06  1.013250E+06  1.013250E+06  1.013250E+06  1.013250E+06  1.013250E+06  1.013250E+06  1.013250E+06
 1.013250E+06  1.013250E+06  1.013250E+06  1.013250E+06  1.013250E+06  1.013250E+06  1.013250E+06  1.013250E+06  1.013250E+06  1.013250E+06
 1.013250E+06  1.013250E+06  1.013250E+06  1.013250E+06  1.013250E+06  1.013250E+06  1.013250E+06  1.013250E+06  1.013250E+06  1.013250E+06
 1.013250E+06  1.013250E+06  1.013250E+06  1.013250E+06  1.013250E+06  1.013250E+06  1.013250E+06  1.013250E+06  1.013250E+06  1.013250E+06
 1.013250E+06  1.013250E+06  1.013250E+06  1.013250E+06  1.013250E+06  1.013250E+06  1.013250E+06  1.013250E+06  1.013250E+06  1.013250E+06
 1.013250E+06  1.013250E+06  1.013250E+06  1.013250E+06  1.013250E+06  1.013250E+06  1.013250E+06  1.013250E+06  1.013250E+06  1.013250E+06
 1.013250E+06  1.013250E+06  1.013250E+06  1.013250E+06  1.013250E+06  1.013250E+06  1.013250E+06  1.013250E+06  1.013250E+06  1.013250E+06
 1.013250E+06  1.013250E+06  1.013250E+06  1.013250E+06  1.013250E+06  1.013250E+06  1.013250E+06  1.013250E+06  1.013250E+06  1.013250E+06
 1.013250E+06  1.013250E+06  1.013250E+06  1.013250E+06  1.013250E+06  1.013250E+06  1.013250E+06  1.013250E+06  1.013250E+06  1.013250E+06
 1.013250E+06  1.013250E+06  1.013250E+06  1.013250E+06  1.013250E+06  1.013250E+06  1.013250E+06  1.013250E+06  1.013250E+06  1.013250E+06
 1.013250E+06  1.013250E+06  1.013250E+06  1.013250E+06  1.013250E+06  1.013250E+06  1.013250E+06  1.013250E+06  1.013250E+06  1.013250E+06
 1.013250E+06  1.013250E+06  1.013250E+06  1.013250E+06  1.013250E+06  1.013250E+06  1.013250E+06  1.013250E+06  1.013250E+06  1.013250E+06
 1.013250E+06  1.013250E+06  1.013250E+06  1.013250E+06  1.013250E+06  1.013250E+06  1.013250E+06  1.013250E+06  1.013250E+06  1.013250E+06
 1.013250E+06  1.013250E+06  1.013250E+06  1.013250E+06  1.013250E+06  1.013250E+06  1.013250E+06  1.013250E+06  1.013250E+06  1.013250E+06
 1.013250E+06  1.013250E+06  1.013250E+06  1.013250E+06  1.013250E+06  1.013250E+06  1.013250E+06  1.013250E+06  1.013250E+06  1.013250E+06
 1.013250E+06  1.013250E+06  1.013250E+06  1.013250E+06  1.013250E+06  1.013250E+06  1.013250E+06  1.013250E+06  1.013250E+06  1.013250E+06
 1.013250E+06  1.013250E+06  1.013250E+06  1.013250E+06  1.013250E+06  1.013250E+06  1.013250E+06  1.013250E+06  1.013250E+06  1.013250E+06
 1.013250E+06  1.013250E+06  1.013250E+06  1.013250E+06  1.013250E+06  1.013250E+06  1.013250E+06  1.013250E+06  1.013250E+06  1.013250E+06
 1.013250E+06  1.013250E+06  1.013250E+06  1.013250E+06  1.013250E+06  1.013250E+06  1.013250E+06  1.013250E+06  1.013250E+06  1.013250E+06
 1.013250E+06  1.013250E+06  1.013250E+06  1.013250E+06  1.013250E+06  1.013250E+06  1.013250E+06  1.013250E+06  1.013250E+06  1.013250E+06
 1.013250E+06  1.013250E+06  1.013250E+06  1.013250E+06  1.013250E+06  1.013250E+06  1.013250E+06  1.013250E+06  1.013250E+06  1.013250E+06
 1.013250E+06  1.013250E+06  1.013250E+06  1.013250E+06  1.013250E+06  1.013250E+06  1.013250E+06  1.013250E+06  1.013250E+06  1.013250E+06
 1.013250E+06  1.013250E+06  1.013250E+06  1.013250E+06  1.013250E+06  1.013250E+06  1.013250E+06  1.013250E+06  1.013250E+06  1.013250E+06
 1.013250E+06  1.013250E+06  1.013250E+06  1.013250E+06  1.013250E+06  1.013250E+06  1.013250E+06  1.013250E+06  1.013250E+06  1.013250E+06
 1.013250E+06  1.013250E+06  1.013250E+06  1.013250E+06  1.013250E+06  1.013250E+06  1.013250E+06  1.013250E+06  1.013250E+06  1.013250E+06
 1.013250E+06  1.013250E+06  1.013250E+06  1.013250E+06  1.013250E+06  1.013250E+06  1.013250E+06  1.013250E+06  1.013250E+06  1.013250E+06
 1.013250E+06  1.013250E+06  1.013250E+06  1.013250E+06  1.013250E+06  1.013250E+06  1.013250E+06  1.013250E+06  1.013250E+06  1.013250E+06
 1.013250E+06  1.013250E+06  1.013250E+06  1.013250E+06  1.013250E+06  1.013250E+06  1.013250E+06  1.013250E+06  1.013250E+06  1.013250E+06
 1.013250E+06  1.013250E+06  1.013250E+06  1.013250E+06  1.013250E+06  1.013250E+06  1.013250E+06  1.013250E+06  1.013250E+06  1.013250E+06
 1.013250E+06  1.013250E+06  1.013250E+06  1.013250E+06  1.013250E+06  1.013250E+06  1.013250E+06  1.013250E+06  1.013250E+06  1.013250E+06
 1.013250E+06  1.013250E+06  1.013250E+06  1.013250E+06  1.013250E+06  1.013250E+06  1.013250E+06  1.013250E+06  1.013250E+06  1.013250E+06
 1.013250E+06  1.013250E+06  1.013250E+06  1.013250E+06  1.013250E+06  1.013250E+06  1.013250E+06  1.013250E+06  1.013250E+06  1.013250E+06
 1.013250E+06  1.013250E+06  1.013250E+06  1.013250E+06  1.013250E+06  1.013250E+06  1.013250E+06  1.013250E+06  1.013250E+06  1.013250E+06
 1.013250E+06  1.013250E+06  1.013250E+06  1.013250E+06  1.013250E+06  1.013250E+06  1.013250E+06  1.013250E+06  1.013250E+06  1.013250E+06
 1.013250E+06  1.013250E+06  1.013250E+06  1.013250E+06  1.013250E+06  1.013250E+06  1.013250E+06  1.013250E+06  1.013250E+06  1.013250E+06
 1.013250E+06  1.013250E+06  1.013250E+06  1.013250E+06  1.013250E+06  1.013250E+06  1.013250E+06  1.013250E+06  1.013250E+06  1.013250E+06
 1.013250E+06  1.013250E+06  1.013250E+06  1.013250E+06  1.013250E+06  1.013250E+06  1.013250E+06  1.013250E+06  1.013250E+06  1.013250E+06
 1.013250E+06  1.013250E+06  1.013250E+06  1.013250E+06  1.013250E+06  1.013250E+06  1.013250E+06  1.013250E+06  1.013250E+06  1.013250E+06
 1.013250E+06  1.013250E+06  1.013250E+06  1.013250E+06  1.013250E+06  1.013250E+06  1.013250E+06  1.013250E+06  1.013250E+06  1.013250E+06
 1.013250E+06  1.013250E+06  1.013250E+06  1.013250E+06  1.013250E+06  1.013250E+06  1.013250E+06  1.013250E+06  1.013250E+06  1.013250E+06
 1.013250E+06  1.013250E+06  1.013250E+06  1.013250E+06  1.013250E+06  1.013250E+06  1.013250E+06  1.013250E+06  1.013250E+06  1.013250E+06
 1.013250E+06  1.013250E+06  1.013250E+06  1.013250E+06  1.013250E+06  1.013250E+06  1.013250E+06  1.013250E+06  1.013250E+06  1.013250E+06
 1.013250E+06  1.013250E+06  1.013250E+06  1.013250E+06  1.013250E+06  1.013250E+06  1.013250E+06  1.013250E+06  1.013250E+06  1.013250E+06
 1.013250E+06  1.013250E+06  1.013250E+06  1.013250E+06  1.013250E+06  1.013250E+06  1.013250E+06  1.013250E+06  1.013250E+06  1.013250E+06